7101
 Atoms. Timestep: 1076
C 0.617 0.71245 -1.42006
C 1.851 1.4249 -1.42006
C 1.851 2.8498 -1.42006
C 0.617 3.56225 -1.42006
C 0.617 4.98715 -1.42006
C 1.851 5.6996 -1.42006
C 1.851 7.1245 -1.42006
C 0.617 7.83695 -1.42006
C 0.617 9.26185 -1.42006
C 1.851 9.9743 -1.42006
C 1.851 11.3992 -1.42006
C 0.617 12.1117 -1.42006
C 0.617 13.5366 -1.42006
C 1.851 14.249 -1.42006
C 1.851 15.6739 -1.42006
C 0.617 16.3864 -1.42006
C 0.617 17.8113 -1.42006
C 1.851 18.5237 -1.42006
C 1.851 19.9486 -1.42006
C 0.617 20.6611 -1.42006
C 0.617 22.086 -1.42006
C 1.851 22.7984 -1.42006
C 1.851 24.2233 -1.42006
C 0.617 24.9358 -1.42006
C 0.617 26.3607 -1.42006
C 1.851 27.0731 -1.42006
C 1.851 28.498 -1.42006
C 0.617 29.2105 -1.42006
C 0.617 30.6354 -1.42006
C 1.851 31.3478 -1.42006
C 1.851 32.7727 -1.42006
C 0.617 33.4852 -1.42006
C 0.617 34.9101 -1.42006
C 1.851 35.6225 -1.42006
C 1.851 37.0474 -1.42006
C 0.617 37.7599 -1.42006
C 0.617 39.1848 -1.42006
C 1.851 39.8972 -1.42006
C 1.851 41.3221 -1.42006
C 0.617 42.0346 -1.42006
C 0.617 43.4595 -1.42006
C 1.851 44.1719 -1.42006
C 1.851 45.5968 -1.42006
C 0.617 46.3093 -1.42006
C 0.617 47.7342 -1.42006
C 1.851 48.4466 -1.42006
C 1.851 49.8715 -1.42006
C 0.617 50.584 -1.42006
C 0.617 52.0089 -1.42006
C 1.851 52.7213 -1.42006
C 1.851 54.1462 -1.42006
C 0.617 54.8587 -1.42006
C 0.617 56.2836 -1.42006
C 1.851 56.996 -1.42006
C 1.851 58.4209 -1.42006
C 0.617 59.1334 -1.42006
C 0.617 60.5583 -1.42006
C 1.851 61.2707 -1.42006
C 1.851 62.6956 -1.42006
C 0.617 63.4081 -1.42006
C 3.085 0.71245 -1.42006
C 4.319 1.4249 -1.42006
C 4.319 2.8498 -1.42006
C 3.085 3.56225 -1.42006
C 3.085 4.98715 -1.42006
C 4.319 5.6996 -1.42006
C 4.319 7.1245 -1.42006
C 3.085 7.83695 -1.42006
C 3.085 9.26185 -1.42006
C 4.319 9.9743 -1.42006
C 4.319 11.3992 -1.42006
C 3.085 12.1117 -1.42006
C 3.085 13.5366 -1.42006
C 4.319 14.249 -1.42006
C 4.319 15.6739 -1.42006
C 3.085 16.3864 -1.42006
C 3.085 17.8113 -1.42006
C 4.319 18.5237 -1.42006
C 4.319 19.9486 -1.42006
C 3.085 20.6611 -1.42006
C 3.085 22.086 -1.42006
C 4.319 22.7984 -1.42006
C 4.319 24.2233 -1.42006
C 3.085 24.9358 -1.42006
C 3.085 26.3607 -1.42006
C 4.319 27.0731 -1.42006
C 4.319 28.498 -1.42006
C 3.085 29.2105 -1.42006
C 3.085 30.6354 -1.42006
C 4.319 31.3478 -1.42006
C 4.319 32.7727 -1.42006
C 3.085 33.4852 -1.42006
C 3.085 34.9101 -1.42006
C 4.319 35.6225 -1.42006
C 4.319 37.0474 -1.42006
C 3.085 37.7599 -1.42006
C 3.085 39.1848 -1.42006
C 4.319 39.8972 -1.42006
C 4.319 41.3221 -1.42006
C 3.085 42.0346 -1.42006
C 3.085 43.4595 -1.42006
C 4.319 44.1719 -1.42006
C 4.319 45.5968 -1.42006
C 3.085 46.3093 -1.42006
C 3.085 47.7342 -1.42006
C 4.319 48.4466 -1.42006
C 4.319 49.8715 -1.42006
C 3.085 50.584 -1.42006
C 3.085 52.0089 -1.42006
C 4.319 52.7213 -1.42006
C 4.319 54.1462 -1.42006
C 3.085 54.8587 -1.42006
C 3.085 56.2836 -1.42006
C 4.319 56.996 -1.42006
C 4.319 58.4209 -1.42006
C 3.085 59.1334 -1.42006
C 3.085 60.5583 -1.42006
C 4.319 61.2707 -1.42006
C 4.319 62.6956 -1.42006
C 3.085 63.4081 -1.42006
C 5.553 0.71245 -1.42006
C 6.787 1.4249 -1.42006
C 6.787 2.8498 -1.42006
C 5.553 3.56225 -1.42006
C 5.553 4.98715 -1.42006
C 6.787 5.6996 -1.42006
C 6.787 7.1245 -1.42006
C 5.553 7.83695 -1.42006
C 5.553 9.26185 -1.42006
C 6.787 9.9743 -1.42006
C 6.787 11.3992 -1.42006
C 5.553 12.1117 -1.42006
C 5.553 13.5366 -1.42006
C 6.787 14.249 -1.42006
C 6.787 15.6739 -1.42006
C 5.553 16.3864 -1.42006
C 5.553 17.8113 -1.42006
C 6.787 18.5237 -1.42006
C 6.787 19.9486 -1.42006
C 5.553 20.6611 -1.42006
C 5.553 22.086 -1.42006
C 6.787 22.7984 -1.42006
C 6.787 24.2233 -1.42006
C 5.553 24.9358 -1.42006
C 5.553 26.3607 -1.42006
C 6.787 27.0731 -1.42006
C 6.787 28.498 -1.42006
C 5.553 29.2105 -1.42006
C 5.553 30.6354 -1.42006
C 6.787 31.3478 -1.42006
C 6.787 32.7727 -1.42006
C 5.553 33.4852 -1.42006
C 5.553 34.9101 -1.42006
C 6.787 35.6225 -1.42006
C 6.787 37.0474 -1.42006
C 5.553 37.7599 -1.42006
C 5.553 39.1848 -1.42006
C 6.787 39.8972 -1.42006
C 6.787 41.3221 -1.42006
C 5.553 42.0346 -1.42006
C 5.553 43.4595 -1.42006
C 6.787 44.1719 -1.42006
C 6.787 45.5968 -1.42006
C 5.553 46.3093 -1.42006
C 5.553 47.7342 -1.42006
C 6.787 48.4466 -1.42006
C 6.787 49.8715 -1.42006
C 5.553 50.584 -1.42006
C 5.553 52.0089 -1.42006
C 6.787 52.7213 -1.42006
C 6.787 54.1462 -1.42006
C 5.553 54.8587 -1.42006
C 5.553 56.2836 -1.42006
C 6.787 56.996 -1.42006
C 6.787 58.4209 -1.42006
C 5.553 59.1334 -1.42006
C 5.553 60.5583 -1.42006
C 6.787 61.2707 -1.42006
C 6.787 62.6956 -1.42006
C 5.553 63.4081 -1.42006
C 8.021 0.71245 -1.42006
C 9.255 1.4249 -1.42006
C 9.255 2.8498 -1.42006
C 8.021 3.56225 -1.42006
C 8.021 4.98715 -1.42006
C 9.255 5.6996 -1.42006
C 9.255 7.1245 -1.42006
C 8.021 7.83695 -1.42006
C 8.021 9.26185 -1.42006
C 9.255 9.9743 -1.42006
C 9.255 11.3992 -1.42006
C 8.021 12.1117 -1.42006
C 8.021 13.5366 -1.42006
C 9.255 14.249 -1.42006
C 9.255 15.6739 -1.42006
C 8.021 16.3864 -1.42006
C 8.021 17.8113 -1.42006
C 9.255 18.5237 -1.42006
C 9.255 19.9486 -1.42006
C 8.021 20.6611 -1.42006
C 8.021 22.086 -1.42006
C 9.255 22.7984 -1.42006
C 9.255 24.2233 -1.42006
C 8.021 24.9358 -1.42006
C 8.021 26.3607 -1.42006
C 9.255 27.0731 -1.42006
C 9.255 28.498 -1.42006
C 8.021 29.2105 -1.42006
C 8.021 30.6354 -1.42006
C 9.255 31.3478 -1.42006
C 9.255 32.7727 -1.42006
C 8.021 33.4852 -1.42006
C 8.021 34.9101 -1.42006
C 9.255 35.6225 -1.42006
C 9.255 37.0474 -1.42006
C 8.021 37.7599 -1.42006
C 8.021 39.1848 -1.42006
C 9.255 39.8972 -1.42006
C 9.255 41.3221 -1.42006
C 8.021 42.0346 -1.42006
C 8.021 43.4595 -1.42006
C 9.255 44.1719 -1.42006
C 9.255 45.5968 -1.42006
C 8.021 46.3093 -1.42006
C 8.021 47.7342 -1.42006
C 9.255 48.4466 -1.42006
C 9.255 49.8715 -1.42006
C 8.021 50.584 -1.42006
C 8.021 52.0089 -1.42006
C 9.255 52.7213 -1.42006
C 9.255 54.1462 -1.42006
C 8.021 54.8587 -1.42006
C 8.021 56.2836 -1.42006
C 9.255 56.996 -1.42006
C 9.255 58.4209 -1.42006
C 8.021 59.1334 -1.42006
C 8.021 60.5583 -1.42006
C 9.255 61.2707 -1.42006
C 9.255 62.6956 -1.42006
C 8.021 63.4081 -1.42006
C 10.489 0.71245 -1.42006
C 11.723 1.4249 -1.42006
C 11.723 2.8498 -1.42006
C 10.489 3.56225 -1.42006
C 10.489 4.98715 -1.42006
C 11.723 5.6996 -1.42006
C 11.723 7.1245 -1.42006
C 10.489 7.83695 -1.42006
C 10.489 9.26185 -1.42006
C 11.723 9.9743 -1.42006
C 11.723 11.3992 -1.42006
C 10.489 12.1117 -1.42006
C 10.489 13.5366 -1.42006
C 11.723 14.249 -1.42006
C 11.723 15.6739 -1.42006
C 10.489 16.3864 -1.42006
C 10.489 17.8113 -1.42006
C 11.723 18.5237 -1.42006
C 11.723 19.9486 -1.42006
C 10.489 20.6611 -1.42006
C 10.489 22.086 -1.42006
C 11.723 22.7984 -1.42006
C 11.723 24.2233 -1.42006
C 10.489 24.9358 -1.42006
C 10.489 26.3607 -1.42006
C 11.723 27.0731 -1.42006
C 11.723 28.498 -1.42006
C 10.489 29.2105 -1.42006
C 10.489 30.6354 -1.42006
C 11.723 31.3478 -1.42006
C 11.723 32.7727 -1.42006
C 10.489 33.4852 -1.42006
C 10.489 34.9101 -1.42006
C 11.723 35.6225 -1.42006
C 11.723 37.0474 -1.42006
C 10.489 37.7599 -1.42006
C 10.489 39.1848 -1.42006
C 11.723 39.8972 -1.42006
C 11.723 41.3221 -1.42006
C 10.489 42.0346 -1.42006
C 10.489 43.4595 -1.42006
C 11.723 44.1719 -1.42006
C 11.723 45.5968 -1.42006
C 10.489 46.3093 -1.42006
C 10.489 47.7342 -1.42006
C 11.723 48.4466 -1.42006
C 11.723 49.8715 -1.42006
C 10.489 50.584 -1.42006
C 10.489 52.0089 -1.42006
C 11.723 52.7213 -1.42006
C 11.723 54.1462 -1.42006
C 10.489 54.8587 -1.42006
C 10.489 56.2836 -1.42006
C 11.723 56.996 -1.42006
C 11.723 58.4209 -1.42006
C 10.489 59.1334 -1.42006
C 10.489 60.5583 -1.42006
C 11.723 61.2707 -1.42006
C 11.723 62.6956 -1.42006
C 10.489 63.4081 -1.42006
C 12.957 0.71245 -1.42006
C 14.191 1.4249 -1.42006
C 14.191 2.8498 -1.42006
C 12.957 3.56225 -1.42006
C 12.957 4.98715 -1.42006
C 14.191 5.6996 -1.42006
C 14.191 7.1245 -1.42006
C 12.957 7.83695 -1.42006
C 12.957 9.26185 -1.42006
C 14.191 9.9743 -1.42006
C 14.191 11.3992 -1.42006
C 12.957 12.1117 -1.42006
C 12.957 13.5366 -1.42006
C 14.191 14.249 -1.42006
C 14.191 15.6739 -1.42006
C 12.957 16.3864 -1.42006
C 12.957 17.8113 -1.42006
C 14.191 18.5237 -1.42006
C 14.191 19.9486 -1.42006
C 12.957 20.6611 -1.42006
C 12.957 22.086 -1.42006
C 14.191 22.7984 -1.42006
C 14.191 24.2233 -1.42006
C 12.957 24.9358 -1.42006
C 12.957 26.3607 -1.42006
C 14.191 27.0731 -1.42006
C 14.191 28.498 -1.42006
C 12.957 29.2105 -1.42006
C 12.957 30.6354 -1.42006
C 14.191 31.3478 -1.42006
C 14.191 32.7727 -1.42006
C 12.957 33.4852 -1.42006
C 12.957 34.9101 -1.42006
C 14.191 35.6225 -1.42006
C 14.191 37.0474 -1.42006
C 12.957 37.7599 -1.42006
C 12.957 39.1848 -1.42006
C 14.191 39.8972 -1.42006
C 14.191 41.3221 -1.42006
C 12.957 42.0346 -1.42006
C 12.957 43.4595 -1.42006
C 14.191 44.1719 -1.42006
C 14.191 45.5968 -1.42006
C 12.957 46.3093 -1.42006
C 12.957 47.7342 -1.42006
C 14.191 48.4466 -1.42006
C 14.191 49.8715 -1.42006
C 12.957 50.584 -1.42006
C 12.957 52.0089 -1.42006
C 14.191 52.7213 -1.42006
C 14.191 54.1462 -1.42006
C 12.957 54.8587 -1.42006
C 12.957 56.2836 -1.42006
C 14.191 56.996 -1.42006
C 14.191 58.4209 -1.42006
C 12.957 59.1334 -1.42006
C 12.957 60.5583 -1.42006
C 14.191 61.2707 -1.42006
C 14.191 62.6956 -1.42006
C 12.957 63.4081 -1.42006
C 15.425 0.71245 -1.42006
C 16.659 1.4249 -1.42006
C 16.659 2.8498 -1.42006
C 15.425 3.56225 -1.42006
C 15.425 4.98715 -1.42006
C 16.659 5.6996 -1.42006
C 16.659 7.1245 -1.42006
C 15.425 7.83695 -1.42006
C 15.425 9.26185 -1.42006
C 16.659 9.9743 -1.42006
C 16.659 11.3992 -1.42006
C 15.425 12.1117 -1.42006
C 15.425 13.5366 -1.42006
C 16.659 14.249 -1.42006
C 16.659 15.6739 -1.42006
C 15.425 16.3864 -1.42006
C 15.425 17.8113 -1.42006
C 16.659 18.5237 -1.42006
C 16.659 19.9486 -1.42006
C 15.425 20.6611 -1.42006
C 15.425 22.086 -1.42006
C 16.659 22.7984 -1.42006
C 16.659 24.2233 -1.42006
C 15.425 24.9358 -1.42006
C 15.425 26.3607 -1.42006
C 16.659 27.0731 -1.42006
C 16.659 28.498 -1.42006
C 15.425 29.2105 -1.42006
C 15.425 30.6354 -1.42006
C 16.659 31.3478 -1.42006
C 16.659 32.7727 -1.42006
C 15.425 33.4852 -1.42006
C 15.425 34.9101 -1.42006
C 16.659 35.6225 -1.42006
C 16.659 37.0474 -1.42006
C 15.425 37.7599 -1.42006
C 15.425 39.1848 -1.42006
C 16.659 39.8972 -1.42006
C 16.659 41.3221 -1.42006
C 15.425 42.0346 -1.42006
C 15.425 43.4595 -1.42006
C 16.659 44.1719 -1.42006
C 16.659 45.5968 -1.42006
C 15.425 46.3093 -1.42006
C 15.425 47.7342 -1.42006
C 16.659 48.4466 -1.42006
C 16.659 49.8715 -1.42006
C 15.425 50.584 -1.42006
C 15.425 52.0089 -1.42006
C 16.659 52.7213 -1.42006
C 16.659 54.1462 -1.42006
C 15.425 54.8587 -1.42006
C 15.425 56.2836 -1.42006
C 16.659 56.996 -1.42006
C 16.659 58.4209 -1.42006
C 15.425 59.1334 -1.42006
C 15.425 60.5583 -1.42006
C 16.659 61.2707 -1.42006
C 16.659 62.6956 -1.42006
C 15.425 63.4081 -1.42006
C 17.893 0.71245 -1.42006
C 19.127 1.4249 -1.42006
C 19.127 2.8498 -1.42006
C 17.893 3.56225 -1.42006
C 17.893 4.98715 -1.42006
C 19.127 5.6996 -1.42006
C 19.127 7.1245 -1.42006
C 17.893 7.83695 -1.42006
C 17.893 9.26185 -1.42006
C 19.127 9.9743 -1.42006
C 19.127 11.3992 -1.42006
C 17.893 12.1117 -1.42006
C 17.893 13.5366 -1.42006
C 19.127 14.249 -1.42006
C 19.127 15.6739 -1.42006
C 17.893 16.3864 -1.42006
C 17.893 17.8113 -1.42006
C 19.127 18.5237 -1.42006
C 19.127 19.9486 -1.42006
C 17.893 20.6611 -1.42006
C 17.893 22.086 -1.42006
C 19.127 22.7984 -1.42006
C 19.127 24.2233 -1.42006
C 17.893 24.9358 -1.42006
C 17.893 26.3607 -1.42006
C 19.127 27.0731 -1.42006
C 19.127 28.498 -1.42006
C 17.893 29.2105 -1.42006
C 17.893 30.6354 -1.42006
C 19.127 31.3478 -1.42006
C 19.127 32.7727 -1.42006
C 17.893 33.4852 -1.42006
C 17.893 34.9101 -1.42006
C 19.127 35.6225 -1.42006
C 19.127 37.0474 -1.42006
C 17.893 37.7599 -1.42006
C 17.893 39.1848 -1.42006
C 19.127 39.8972 -1.42006
C 19.127 41.3221 -1.42006
C 17.893 42.0346 -1.42006
C 17.893 43.4595 -1.42006
C 19.127 44.1719 -1.42006
C 19.127 45.5968 -1.42006
C 17.893 46.3093 -1.42006
C 17.893 47.7342 -1.42006
C 19.127 48.4466 -1.42006
C 19.127 49.8715 -1.42006
C 17.893 50.584 -1.42006
C 17.893 52.0089 -1.42006
C 19.127 52.7213 -1.42006
C 19.127 54.1462 -1.42006
C 17.893 54.8587 -1.42006
C 17.893 56.2836 -1.42006
C 19.127 56.996 -1.42006
C 19.127 58.4209 -1.42006
C 17.893 59.1334 -1.42006
C 17.893 60.5583 -1.42006
C 19.127 61.2707 -1.42006
C 19.127 62.6956 -1.42006
C 17.893 63.4081 -1.42006
C 20.361 0.71245 -1.42006
C 21.595 1.4249 -1.42006
C 21.595 2.8498 -1.42006
C 20.361 3.56225 -1.42006
C 20.361 4.98715 -1.42006
C 21.595 5.6996 -1.42006
C 21.595 7.1245 -1.42006
C 20.361 7.83695 -1.42006
C 20.361 9.26185 -1.42006
C 21.595 9.9743 -1.42006
C 21.595 11.3992 -1.42006
C 20.361 12.1117 -1.42006
C 20.361 13.5366 -1.42006
C 21.595 14.249 -1.42006
C 21.595 15.6739 -1.42006
C 20.361 16.3864 -1.42006
C 20.361 17.8113 -1.42006
C 21.595 18.5237 -1.42006
C 21.595 19.9486 -1.42006
C 20.361 20.6611 -1.42006
C 20.361 22.086 -1.42006
C 21.595 22.7984 -1.42006
C 21.595 24.2233 -1.42006
C 20.361 24.9358 -1.42006
C 20.361 26.3607 -1.42006
C 21.595 27.0731 -1.42006
C 21.595 28.498 -1.42006
C 20.361 29.2105 -1.42006
C 20.361 30.6354 -1.42006
C 21.595 31.3478 -1.42006
C 21.595 32.7727 -1.42006
C 20.361 33.4852 -1.42006
C 20.361 34.9101 -1.42006
C 21.595 35.6225 -1.42006
C 21.595 37.0474 -1.42006
C 20.361 37.7599 -1.42006
C 20.361 39.1848 -1.42006
C 21.595 39.8972 -1.42006
C 21.595 41.3221 -1.42006
C 20.361 42.0346 -1.42006
C 20.361 43.4595 -1.42006
C 21.595 44.1719 -1.42006
C 21.595 45.5968 -1.42006
C 20.361 46.3093 -1.42006
C 20.361 47.7342 -1.42006
C 21.595 48.4466 -1.42006
C 21.595 49.8715 -1.42006
C 20.361 50.584 -1.42006
C 20.361 52.0089 -1.42006
C 21.595 52.7213 -1.42006
C 21.595 54.1462 -1.42006
C 20.361 54.8587 -1.42006
C 20.361 56.2836 -1.42006
C 21.595 56.996 -1.42006
C 21.595 58.4209 -1.42006
C 20.361 59.1334 -1.42006
C 20.361 60.5583 -1.42006
C 21.595 61.2707 -1.42006
C 21.595 62.6956 -1.42006
C 20.361 63.4081 -1.42006
C 22.829 0.71245 -1.42006
C 24.063 1.4249 -1.42006
C 24.063 2.8498 -1.42006
C 22.829 3.56225 -1.42006
C 22.829 4.98715 -1.42006
C 24.063 5.6996 -1.42006
C 24.063 7.1245 -1.42006
C 22.829 7.83695 -1.42006
C 22.829 9.26185 -1.42006
C 24.063 9.9743 -1.42006
C 24.063 11.3992 -1.42006
C 22.829 12.1117 -1.42006
C 22.829 13.5366 -1.42006
C 24.063 14.249 -1.42006
C 24.063 15.6739 -1.42006
C 22.829 16.3864 -1.42006
C 22.829 17.8113 -1.42006
C 24.063 18.5237 -1.42006
C 24.063 19.9486 -1.42006
C 22.829 20.6611 -1.42006
C 22.829 22.086 -1.42006
C 24.063 22.7984 -1.42006
C 24.063 24.2233 -1.42006
C 22.829 24.9358 -1.42006
C 22.829 26.3607 -1.42006
C 24.063 27.0731 -1.42006
C 24.063 28.498 -1.42006
C 22.829 29.2105 -1.42006
C 22.829 30.6354 -1.42006
C 24.063 31.3478 -1.42006
C 24.063 32.7727 -1.42006
C 22.829 33.4852 -1.42006
C 22.829 34.9101 -1.42006
C 24.063 35.6225 -1.42006
C 24.063 37.0474 -1.42006
C 22.829 37.7599 -1.42006
C 22.829 39.1848 -1.42006
C 24.063 39.8972 -1.42006
C 24.063 41.3221 -1.42006
C 22.829 42.0346 -1.42006
C 22.829 43.4595 -1.42006
C 24.063 44.1719 -1.42006
C 24.063 45.5968 -1.42006
C 22.829 46.3093 -1.42006
C 22.829 47.7342 -1.42006
C 24.063 48.4466 -1.42006
C 24.063 49.8715 -1.42006
C 22.829 50.584 -1.42006
C 22.829 52.0089 -1.42006
C 24.063 52.7213 -1.42006
C 24.063 54.1462 -1.42006
C 22.829 54.8587 -1.42006
C 22.829 56.2836 -1.42006
C 24.063 56.996 -1.42006
C 24.063 58.4209 -1.42006
C 22.829 59.1334 -1.42006
C 22.829 60.5583 -1.42006
C 24.063 61.2707 -1.42006
C 24.063 62.6956 -1.42006
C 22.829 63.4081 -1.42006
C 25.297 0.71245 -1.42006
C 26.531 1.4249 -1.42006
C 26.531 2.8498 -1.42006
C 25.297 3.56225 -1.42006
C 25.297 4.98715 -1.42006
C 26.531 5.6996 -1.42006
C 26.531 7.1245 -1.42006
C 25.297 7.83695 -1.42006
C 25.297 9.26185 -1.42006
C 26.531 9.9743 -1.42006
C 26.531 11.3992 -1.42006
C 25.297 12.1117 -1.42006
C 25.297 13.5366 -1.42006
C 26.531 14.249 -1.42006
C 26.531 15.6739 -1.42006
C 25.297 16.3864 -1.42006
C 25.297 17.8113 -1.42006
C 26.531 18.5237 -1.42006
C 26.531 19.9486 -1.42006
C 25.297 20.6611 -1.42006
C 25.297 22.086 -1.42006
C 26.531 22.7984 -1.42006
C 26.531 24.2233 -1.42006
C 25.297 24.9358 -1.42006
C 25.297 26.3607 -1.42006
C 26.531 27.0731 -1.42006
C 26.531 28.498 -1.42006
C 25.297 29.2105 -1.42006
C 25.297 30.6354 -1.42006
C 26.531 31.3478 -1.42006
C 26.531 32.7727 -1.42006
C 25.297 33.4852 -1.42006
C 25.297 34.9101 -1.42006
C 26.531 35.6225 -1.42006
C 26.531 37.0474 -1.42006
C 25.297 37.7599 -1.42006
C 25.297 39.1848 -1.42006
C 26.531 39.8972 -1.42006
C 26.531 41.3221 -1.42006
C 25.297 42.0346 -1.42006
C 25.297 43.4595 -1.42006
C 26.531 44.1719 -1.42006
C 26.531 45.5968 -1.42006
C 25.297 46.3093 -1.42006
C 25.297 47.7342 -1.42006
C 26.531 48.4466 -1.42006
C 26.531 49.8715 -1.42006
C 25.297 50.584 -1.42006
C 25.297 52.0089 -1.42006
C 26.531 52.7213 -1.42006
C 26.531 54.1462 -1.42006
C 25.297 54.8587 -1.42006
C 25.297 56.2836 -1.42006
C 26.531 56.996 -1.42006
C 26.531 58.4209 -1.42006
C 25.297 59.1334 -1.42006
C 25.297 60.5583 -1.42006
C 26.531 61.2707 -1.42006
C 26.531 62.6956 -1.42006
C 25.297 63.4081 -1.42006
C 27.765 0.71245 -1.42006
C 28.999 1.4249 -1.42006
C 28.999 2.8498 -1.42006
C 27.765 3.56225 -1.42006
C 27.765 4.98715 -1.42006
C 28.999 5.6996 -1.42006
C 28.999 7.1245 -1.42006
C 27.765 7.83695 -1.42006
C 27.765 9.26185 -1.42006
C 28.999 9.9743 -1.42006
C 28.999 11.3992 -1.42006
C 27.765 12.1117 -1.42006
C 27.765 13.5366 -1.42006
C 28.999 14.249 -1.42006
C 28.999 15.6739 -1.42006
C 27.765 16.3864 -1.42006
C 27.765 17.8113 -1.42006
C 28.999 18.5237 -1.42006
C 28.999 19.9486 -1.42006
C 27.765 20.6611 -1.42006
C 27.765 22.086 -1.42006
C 28.999 22.7984 -1.42006
C 28.999 24.2233 -1.42006
C 27.765 24.9358 -1.42006
C 27.765 26.3607 -1.42006
C 28.999 27.0731 -1.42006
C 28.999 28.498 -1.42006
C 27.765 29.2105 -1.42006
C 27.765 30.6354 -1.42006
C 28.999 31.3478 -1.42006
C 28.999 32.7727 -1.42006
C 27.765 33.4852 -1.42006
C 27.765 34.9101 -1.42006
C 28.999 35.6225 -1.42006
C 28.999 37.0474 -1.42006
C 27.765 37.7599 -1.42006
C 27.765 39.1848 -1.42006
C 28.999 39.8972 -1.42006
C 28.999 41.3221 -1.42006
C 27.765 42.0346 -1.42006
C 27.765 43.4595 -1.42006
C 28.999 44.1719 -1.42006
C 28.999 45.5968 -1.42006
C 27.765 46.3093 -1.42006
C 27.765 47.7342 -1.42006
C 28.999 48.4466 -1.42006
C 28.999 49.8715 -1.42006
C 27.765 50.584 -1.42006
C 27.765 52.0089 -1.42006
C 28.999 52.7213 -1.42006
C 28.999 54.1462 -1.42006
C 27.765 54.8587 -1.42006
C 27.765 56.2836 -1.42006
C 28.999 56.996 -1.42006
C 28.999 58.4209 -1.42006
C 27.765 59.1334 -1.42006
C 27.765 60.5583 -1.42006
C 28.999 61.2707 -1.42006
C 28.999 62.6956 -1.42006
C 27.765 63.4081 -1.42006
C 30.233 0.71245 -1.42006
C 31.467 1.4249 -1.42006
C 31.467 2.8498 -1.42006
C 30.233 3.56225 -1.42006
C 30.233 4.98715 -1.42006
C 31.467 5.6996 -1.42006
C 31.467 7.1245 -1.42006
C 30.233 7.83695 -1.42006
C 30.233 9.26185 -1.42006
C 31.467 9.9743 -1.42006
C 31.467 11.3992 -1.42006
C 30.233 12.1117 -1.42006
C 30.233 13.5366 -1.42006
C 31.467 14.249 -1.42006
C 31.467 15.6739 -1.42006
C 30.233 16.3864 -1.42006
C 30.233 17.8113 -1.42006
C 31.467 18.5237 -1.42006
C 31.467 19.9486 -1.42006
C 30.233 20.6611 -1.42006
C 30.233 22.086 -1.42006
C 31.467 22.7984 -1.42006
C 31.467 24.2233 -1.42006
C 30.233 24.9358 -1.42006
C 30.233 26.3607 -1.42006
C 31.467 27.0731 -1.42006
C 31.467 28.498 -1.42006
C 30.233 29.2105 -1.42006
C 30.233 30.6354 -1.42006
C 31.467 31.3478 -1.42006
C 31.467 32.7727 -1.42006
C 30.233 33.4852 -1.42006
C 30.233 34.9101 -1.42006
C 31.467 35.6225 -1.42006
C 31.467 37.0474 -1.42006
C 30.233 37.7599 -1.42006
C 30.233 39.1848 -1.42006
C 31.467 39.8972 -1.42006
C 31.467 41.3221 -1.42006
C 30.233 42.0346 -1.42006
C 30.233 43.4595 -1.42006
C 31.467 44.1719 -1.42006
C 31.467 45.5968 -1.42006
C 30.233 46.3093 -1.42006
C 30.233 47.7342 -1.42006
C 31.467 48.4466 -1.42006
C 31.467 49.8715 -1.42006
C 30.233 50.584 -1.42006
C 30.233 52.0089 -1.42006
C 31.467 52.7213 -1.42006
C 31.467 54.1462 -1.42006
C 30.233 54.8587 -1.42006
C 30.233 56.2836 -1.42006
C 31.467 56.996 -1.42006
C 31.467 58.4209 -1.42006
C 30.233 59.1334 -1.42006
C 30.233 60.5583 -1.42006
C 31.467 61.2707 -1.42006
C 31.467 62.6956 -1.42006
C 30.233 63.4081 -1.42006
C 32.701 0.71245 -1.42006
C 33.935 1.4249 -1.42006
C 33.935 2.8498 -1.42006
C 32.701 3.56225 -1.42006
C 32.701 4.98715 -1.42006
C 33.935 5.6996 -1.42006
C 33.935 7.1245 -1.42006
C 32.701 7.83695 -1.42006
C 32.701 9.26185 -1.42006
C 33.935 9.9743 -1.42006
C 33.935 11.3992 -1.42006
C 32.701 12.1117 -1.42006
C 32.701 13.5366 -1.42006
C 33.935 14.249 -1.42006
C 33.935 15.6739 -1.42006
C 32.701 16.3864 -1.42006
C 32.701 17.8113 -1.42006
C 33.935 18.5237 -1.42006
C 33.935 19.9486 -1.42006
C 32.701 20.6611 -1.42006
C 32.701 22.086 -1.42006
C 33.935 22.7984 -1.42006
C 33.935 24.2233 -1.42006
C 32.701 24.9358 -1.42006
C 32.701 26.3607 -1.42006
C 33.935 27.0731 -1.42006
C 33.935 28.498 -1.42006
C 32.701 29.2105 -1.42006
C 32.701 30.6354 -1.42006
C 33.935 31.3478 -1.42006
C 33.935 32.7727 -1.42006
C 32.701 33.4852 -1.42006
C 32.701 34.9101 -1.42006
C 33.935 35.6225 -1.42006
C 33.935 37.0474 -1.42006
C 32.701 37.7599 -1.42006
C 32.701 39.1848 -1.42006
C 33.935 39.8972 -1.42006
C 33.935 41.3221 -1.42006
C 32.701 42.0346 -1.42006
C 32.701 43.4595 -1.42006
C 33.935 44.1719 -1.42006
C 33.935 45.5968 -1.42006
C 32.701 46.3093 -1.42006
C 32.701 47.7342 -1.42006
C 33.935 48.4466 -1.42006
C 33.935 49.8715 -1.42006
C 32.701 50.584 -1.42006
C 32.701 52.0089 -1.42006
C 33.935 52.7213 -1.42006
C 33.935 54.1462 -1.42006
C 32.701 54.8587 -1.42006
C 32.701 56.2836 -1.42006
C 33.935 56.996 -1.42006
C 33.935 58.4209 -1.42006
C 32.701 59.1334 -1.42006
C 32.701 60.5583 -1.42006
C 33.935 61.2707 -1.42006
C 33.935 62.6956 -1.42006
C 32.701 63.4081 -1.42006
C 35.169 0.71245 -1.42006
C 36.403 1.4249 -1.42006
C 36.403 2.8498 -1.42006
C 35.169 3.56225 -1.42006
C 35.169 4.98715 -1.42006
C 36.403 5.6996 -1.42006
C 36.403 7.1245 -1.42006
C 35.169 7.83695 -1.42006
C 35.169 9.26185 -1.42006
C 36.403 9.9743 -1.42006
C 36.403 11.3992 -1.42006
C 35.169 12.1117 -1.42006
C 35.169 13.5366 -1.42006
C 36.403 14.249 -1.42006
C 36.403 15.6739 -1.42006
C 35.169 16.3864 -1.42006
C 35.169 17.8113 -1.42006
C 36.403 18.5237 -1.42006
C 36.403 19.9486 -1.42006
C 35.169 20.6611 -1.42006
C 35.169 22.086 -1.42006
C 36.403 22.7984 -1.42006
C 36.403 24.2233 -1.42006
C 35.169 24.9358 -1.42006
C 35.169 26.3607 -1.42006
C 36.403 27.0731 -1.42006
C 36.403 28.498 -1.42006
C 35.169 29.2105 -1.42006
C 35.169 30.6354 -1.42006
C 36.403 31.3478 -1.42006
C 36.403 32.7727 -1.42006
C 35.169 33.4852 -1.42006
C 35.169 34.9101 -1.42006
C 36.403 35.6225 -1.42006
C 36.403 37.0474 -1.42006
C 35.169 37.7599 -1.42006
C 35.169 39.1848 -1.42006
C 36.403 39.8972 -1.42006
C 36.403 41.3221 -1.42006
C 35.169 42.0346 -1.42006
C 35.169 43.4595 -1.42006
C 36.403 44.1719 -1.42006
C 36.403 45.5968 -1.42006
C 35.169 46.3093 -1.42006
C 35.169 47.7342 -1.42006
C 36.403 48.4466 -1.42006
C 36.403 49.8715 -1.42006
C 35.169 50.584 -1.42006
C 35.169 52.0089 -1.42006
C 36.403 52.7213 -1.42006
C 36.403 54.1462 -1.42006
C 35.169 54.8587 -1.42006
C 35.169 56.2836 -1.42006
C 36.403 56.996 -1.42006
C 36.403 58.4209 -1.42006
C 35.169 59.1334 -1.42006
C 35.169 60.5583 -1.42006
C 36.403 61.2707 -1.42006
C 36.403 62.6956 -1.42006
C 35.169 63.4081 -1.42006
C 37.637 0.71245 -1.42006
C 38.871 1.4249 -1.42006
C 38.871 2.8498 -1.42006
C 37.637 3.56225 -1.42006
C 37.637 4.98715 -1.42006
C 38.871 5.6996 -1.42006
C 38.871 7.1245 -1.42006
C 37.637 7.83695 -1.42006
C 37.637 9.26185 -1.42006
C 38.871 9.9743 -1.42006
C 38.871 11.3992 -1.42006
C 37.637 12.1117 -1.42006
C 37.637 13.5366 -1.42006
C 38.871 14.249 -1.42006
C 38.871 15.6739 -1.42006
C 37.637 16.3864 -1.42006
C 37.637 17.8113 -1.42006
C 38.871 18.5237 -1.42006
C 38.871 19.9486 -1.42006
C 37.637 20.6611 -1.42006
C 37.637 22.086 -1.42006
C 38.871 22.7984 -1.42006
C 38.871 24.2233 -1.42006
C 37.637 24.9358 -1.42006
C 37.637 26.3607 -1.42006
C 38.871 27.0731 -1.42006
C 38.871 28.498 -1.42006
C 37.637 29.2105 -1.42006
C 37.637 30.6354 -1.42006
C 38.871 31.3478 -1.42006
C 38.871 32.7727 -1.42006
C 37.637 33.4852 -1.42006
C 37.637 34.9101 -1.42006
C 38.871 35.6225 -1.42006
C 38.871 37.0474 -1.42006
C 37.637 37.7599 -1.42006
C 37.637 39.1848 -1.42006
C 38.871 39.8972 -1.42006
C 38.871 41.3221 -1.42006
C 37.637 42.0346 -1.42006
C 37.637 43.4595 -1.42006
C 38.871 44.1719 -1.42006
C 38.871 45.5968 -1.42006
C 37.637 46.3093 -1.42006
C 37.637 47.7342 -1.42006
C 38.871 48.4466 -1.42006
C 38.871 49.8715 -1.42006
C 37.637 50.584 -1.42006
C 37.637 52.0089 -1.42006
C 38.871 52.7213 -1.42006
C 38.871 54.1462 -1.42006
C 37.637 54.8587 -1.42006
C 37.637 56.2836 -1.42006
C 38.871 56.996 -1.42006
C 38.871 58.4209 -1.42006
C 37.637 59.1334 -1.42006
C 37.637 60.5583 -1.42006
C 38.871 61.2707 -1.42006
C 38.871 62.6956 -1.42006
C 37.637 63.4081 -1.42006
C 40.105 0.71245 -1.42006
C 41.339 1.4249 -1.42006
C 41.339 2.8498 -1.42006
C 40.105 3.56225 -1.42006
C 40.105 4.98715 -1.42006
C 41.339 5.6996 -1.42006
C 41.339 7.1245 -1.42006
C 40.105 7.83695 -1.42006
C 40.105 9.26185 -1.42006
C 41.339 9.9743 -1.42006
C 41.339 11.3992 -1.42006
C 40.105 12.1117 -1.42006
C 40.105 13.5366 -1.42006
C 41.339 14.249 -1.42006
C 41.339 15.6739 -1.42006
C 40.105 16.3864 -1.42006
C 40.105 17.8113 -1.42006
C 41.339 18.5237 -1.42006
C 41.339 19.9486 -1.42006
C 40.105 20.6611 -1.42006
C 40.105 22.086 -1.42006
C 41.339 22.7984 -1.42006
C 41.339 24.2233 -1.42006
C 40.105 24.9358 -1.42006
C 40.105 26.3607 -1.42006
C 41.339 27.0731 -1.42006
C 41.339 28.498 -1.42006
C 40.105 29.2105 -1.42006
C 40.105 30.6354 -1.42006
C 41.339 31.3478 -1.42006
C 41.339 32.7727 -1.42006
C 40.105 33.4852 -1.42006
C 40.105 34.9101 -1.42006
C 41.339 35.6225 -1.42006
C 41.339 37.0474 -1.42006
C 40.105 37.7599 -1.42006
C 40.105 39.1848 -1.42006
C 41.339 39.8972 -1.42006
C 41.339 41.3221 -1.42006
C 40.105 42.0346 -1.42006
C 40.105 43.4595 -1.42006
C 41.339 44.1719 -1.42006
C 41.339 45.5968 -1.42006
C 40.105 46.3093 -1.42006
C 40.105 47.7342 -1.42006
C 41.339 48.4466 -1.42006
C 41.339 49.8715 -1.42006
C 40.105 50.584 -1.42006
C 40.105 52.0089 -1.42006
C 41.339 52.7213 -1.42006
C 41.339 54.1462 -1.42006
C 40.105 54.8587 -1.42006
C 40.105 56.2836 -1.42006
C 41.339 56.996 -1.42006
C 41.339 58.4209 -1.42006
C 40.105 59.1334 -1.42006
C 40.105 60.5583 -1.42006
C 41.339 61.2707 -1.42006
C 41.339 62.6956 -1.42006
C 40.105 63.4081 -1.42006
C 42.573 0.71245 -1.42006
C 43.807 1.4249 -1.42006
C 43.807 2.8498 -1.42006
C 42.573 3.56225 -1.42006
C 42.573 4.98715 -1.42006
C 43.807 5.6996 -1.42006
C 43.807 7.1245 -1.42006
C 42.573 7.83695 -1.42006
C 42.573 9.26185 -1.42006
C 43.807 9.9743 -1.42006
C 43.807 11.3992 -1.42006
C 42.573 12.1117 -1.42006
C 42.573 13.5366 -1.42006
C 43.807 14.249 -1.42006
C 43.807 15.6739 -1.42006
C 42.573 16.3864 -1.42006
C 42.573 17.8113 -1.42006
C 43.807 18.5237 -1.42006
C 43.807 19.9486 -1.42006
C 42.573 20.6611 -1.42006
C 42.573 22.086 -1.42006
C 43.807 22.7984 -1.42006
C 43.807 24.2233 -1.42006
C 42.573 24.9358 -1.42006
C 42.573 26.3607 -1.42006
C 43.807 27.0731 -1.42006
C 43.807 28.498 -1.42006
C 42.573 29.2105 -1.42006
C 42.573 30.6354 -1.42006
C 43.807 31.3478 -1.42006
C 43.807 32.7727 -1.42006
C 42.573 33.4852 -1.42006
C 42.573 34.9101 -1.42006
C 43.807 35.6225 -1.42006
C 43.807 37.0474 -1.42006
C 42.573 37.7599 -1.42006
C 42.573 39.1848 -1.42006
C 43.807 39.8972 -1.42006
C 43.807 41.3221 -1.42006
C 42.573 42.0346 -1.42006
C 42.573 43.4595 -1.42006
C 43.807 44.1719 -1.42006
C 43.807 45.5968 -1.42006
C 42.573 46.3093 -1.42006
C 42.573 47.7342 -1.42006
C 43.807 48.4466 -1.42006
C 43.807 49.8715 -1.42006
C 42.573 50.584 -1.42006
C 42.573 52.0089 -1.42006
C 43.807 52.7213 -1.42006
C 43.807 54.1462 -1.42006
C 42.573 54.8587 -1.42006
C 42.573 56.2836 -1.42006
C 43.807 56.996 -1.42006
C 43.807 58.4209 -1.42006
C 42.573 59.1334 -1.42006
C 42.573 60.5583 -1.42006
C 43.807 61.2707 -1.42006
C 43.807 62.6956 -1.42006
C 42.573 63.4081 -1.42006
C 45.041 0.71245 -1.42006
C 46.275 1.4249 -1.42006
C 46.275 2.8498 -1.42006
C 45.041 3.56225 -1.42006
C 45.041 4.98715 -1.42006
C 46.275 5.6996 -1.42006
C 46.275 7.1245 -1.42006
C 45.041 7.83695 -1.42006
C 45.041 9.26185 -1.42006
C 46.275 9.9743 -1.42006
C 46.275 11.3992 -1.42006
C 45.041 12.1117 -1.42006
C 45.041 13.5366 -1.42006
C 46.275 14.249 -1.42006
C 46.275 15.6739 -1.42006
C 45.041 16.3864 -1.42006
C 45.041 17.8113 -1.42006
C 46.275 18.5237 -1.42006
C 46.275 19.9486 -1.42006
C 45.041 20.6611 -1.42006
C 45.041 22.086 -1.42006
C 46.275 22.7984 -1.42006
C 46.275 24.2233 -1.42006
C 45.041 24.9358 -1.42006
C 45.041 26.3607 -1.42006
C 46.275 27.0731 -1.42006
C 46.275 28.498 -1.42006
C 45.041 29.2105 -1.42006
C 45.041 30.6354 -1.42006
C 46.275 31.3478 -1.42006
C 46.275 32.7727 -1.42006
C 45.041 33.4852 -1.42006
C 45.041 34.9101 -1.42006
C 46.275 35.6225 -1.42006
C 46.275 37.0474 -1.42006
C 45.041 37.7599 -1.42006
C 45.041 39.1848 -1.42006
C 46.275 39.8972 -1.42006
C 46.275 41.3221 -1.42006
C 45.041 42.0346 -1.42006
C 45.041 43.4595 -1.42006
C 46.275 44.1719 -1.42006
C 46.275 45.5968 -1.42006
C 45.041 46.3093 -1.42006
C 45.041 47.7342 -1.42006
C 46.275 48.4466 -1.42006
C 46.275 49.8715 -1.42006
C 45.041 50.584 -1.42006
C 45.041 52.0089 -1.42006
C 46.275 52.7213 -1.42006
C 46.275 54.1462 -1.42006
C 45.041 54.8587 -1.42006
C 45.041 56.2836 -1.42006
C 46.275 56.996 -1.42006
C 46.275 58.4209 -1.42006
C 45.041 59.1334 -1.42006
C 45.041 60.5583 -1.42006
C 46.275 61.2707 -1.42006
C 46.275 62.6956 -1.42006
C 45.041 63.4081 -1.42006
C 47.509 0.71245 -1.42006
C 48.743 1.4249 -1.42006
C 48.743 2.8498 -1.42006
C 47.509 3.56225 -1.42006
C 47.509 4.98715 -1.42006
C 48.743 5.6996 -1.42006
C 48.743 7.1245 -1.42006
C 47.509 7.83695 -1.42006
C 47.509 9.26185 -1.42006
C 48.743 9.9743 -1.42006
C 48.743 11.3992 -1.42006
C 47.509 12.1117 -1.42006
C 47.509 13.5366 -1.42006
C 48.743 14.249 -1.42006
C 48.743 15.6739 -1.42006
C 47.509 16.3864 -1.42006
C 47.509 17.8113 -1.42006
C 48.743 18.5237 -1.42006
C 48.743 19.9486 -1.42006
C 47.509 20.6611 -1.42006
C 47.509 22.086 -1.42006
C 48.743 22.7984 -1.42006
C 48.743 24.2233 -1.42006
C 47.509 24.9358 -1.42006
C 47.509 26.3607 -1.42006
C 48.743 27.0731 -1.42006
C 48.743 28.498 -1.42006
C 47.509 29.2105 -1.42006
C 47.509 30.6354 -1.42006